                               Psi4 1.5 release

  ==> Input File <==

--------------------------------------------------------------------------
molecule {
He  0   0   0
--
He  2   0   0
}

import snsmp2
energy('sns-mp2')--------------------------------------------------------------------------

Scratch directory: /tmp/

  //>>>>>>>>>>>>>>>>>>>>>>>>>>>>>>>>>>>>>>>>>>>>>>>>>>>>>>>>>>>>>//
  // Scheduling Monomer A in DESAVTZ monomer-centered basis (HF) //
  //<<<<<<<<<<<<<<<<<<<<<<<<<<<<<<<<<<<<<<<<<<<<<<<<<<<<<<<<<<<<<//

*** tstart() called on login
*** at Mon Apr 18 15:16:52 2022

   => Loading Basis Set <=

    Name: DESAVTZ
    Role: ORBITAL
    Keyword: BASIS
    atoms 1 entry HE         line    62 file /data/home/liuhanyu/anaconda3/envs/psi4/share/psi4/basis/aug-cc-pvtz.gbs

         ---------------------------------------------------------
                                   SCF
               by Justin Turney, Rob Parrish, Andy Simmonett
                          and Daniel G. A. Smith
                              RHF Reference
                        1 Threads,    500 MiB Core
         ---------------------------------------------------------

  ==> Geometry <==

    Molecular point group: c1
    Geometry (in Angstrom), charge = 0, multiplicity = 1:

       Center              X                  Y                   Z               Mass
    ------------   -----------------  -----------------  -----------------  -----------------
         HE          -1.000000000000    -0.000000000000     0.000000000000     4.002603254130

  Running in c1 symmetry.

  Rotational constants: A = ************  B =      4.21167  C =      4.21167 [cm^-1]
  Rotational constants: A = ************  B = 126262.57882  C = 126262.57882 [MHz]
  Nuclear repulsion =    0.000000000000000

  Charge       = 0
  Multiplicity = 1
  Electrons    = 2
  Nalpha       = 1
  Nbeta        = 1

  ==> Algorithm <==

  SCF Algorithm Type is DF.
  DIIS enabled.
  MOM disabled.
  Fractional occupation disabled.
  Guess Type is CORE.
  Energy threshold   = 1.00e-08
  Density threshold  = 1.00e-08
  Integral threshold = 1.00e-12

  ==> Primary Basis <==

  Basis Set: DESAVTZ
    Blend: AUG-CC-PVTZ
    Number of shells: 9
    Number of basis functions: 23
    Number of Cartesian functions: 25
    Spherical Harmonics?: true
    Max angular momentum: 2

   => Loading Basis Set <=

    Name: DESAVTZJKFIT
    Role: JKFIT
    Keyword: DF_BASIS_SCF
    atoms 1 entry HE         line    34 file /data/home/liuhanyu/anaconda3/envs/psi4/share/psi4/basis/def2-universal-jkfit.gbs

  ==> Integral Setup <==

  ==> DiskDFJK: Density-Fitted J/K Matrices <==

    J tasked:                  Yes
    K tasked:                  Yes
    wK tasked:                  No
    OpenMP threads:              1
    Integrals threads:           1
    Memory [MiB]:              375
    Algorithm:                Core
    Integral Cache:           NONE
    Schwarz Cutoff:          1E-12
    Fitting Condition:       1E-10

   => Auxiliary Basis Set <=

  Basis Set: DESAVTZJKFIT
    Blend: DEF2-UNIVERSAL-JKFIT
    Number of shells: 9
    Number of basis functions: 23
    Number of Cartesian functions: 25
    Spherical Harmonics?: true
    Max angular momentum: 2

  Minimum eigenvalue in the overlap matrix is 7.0110136498E-02.
  Reciprocal condition number of the overlap matrix is 2.7082357526E-02.
    Using symmetric orthogonalization.

  ==> Pre-Iterations <==

  SCF Guess: Core (One-Electron) Hamiltonian.

   -------------------------------------------------------
    Irrep   Nso     Nmo     Nalpha   Nbeta   Ndocc  Nsocc
   -------------------------------------------------------
     A         23      23       1       1       1       0
   -------------------------------------------------------
    Total      23      23       1       1       1       0
   -------------------------------------------------------

  ==> Iterations <==

                           Total Energy        Delta E     RMS |[F,P]|

   @DF-RHF iter   1:    -2.75222140508069   -2.75222e+00   2.30194e-02 DIIS
   @DF-RHF iter   2:    -2.85975100088551   -1.07530e-01   1.92123e-03 DIIS
   @DF-RHF iter   3:    -2.86118118969516   -1.43019e-03   2.83556e-04 DIIS
   @DF-RHF iter   4:    -2.86120624828801   -2.50586e-05   9.62172e-06 DIIS
   @DF-RHF iter   5:    -2.86120630793689   -5.96489e-08   1.00275e-06 DIIS
   @DF-RHF iter   6:    -2.86120630847483   -5.37944e-10   3.37004e-09 DIIS
  Energy and wave function converged.

  ==> Post-Iterations <==

    Orbital Energies [Eh]
    ---------------------

    Doubly Occupied:

       1A     -0.917882

    Virtual:

       2A      0.110957     3A      0.429035     4A      0.429035
       5A      0.429035     6A      0.842057     7A      1.520744
       8A      1.520744     9A      1.520744    10A      1.520744
      11A      1.520744    12A      1.962813    13A      1.962813
      14A      1.962813    15A      4.821640    16A      7.123617
      17A      7.123617    18A      7.123617    19A      7.123617
      20A      7.123617    21A      8.222484    22A      8.222484
      23A      8.222484

    Final Occupation by Irrep:
              A
    DOCC [     1 ]

  @DF-RHF Final Energy:    -2.86120630847483

   => Energetics <=

    Nuclear Repulsion Energy =              0.0000000000000000
    One-Electron Energy =                  -3.8866483964540182
    Two-Electron Energy =                   1.0254420879791839
    Total Energy =                         -2.8612063084748343

Computation Completed

Properties will be evaluated at   0.000000,   0.000000,   0.000000 [a0]

Properties computed using the SCF density matrix

  Nuclear Dipole Moment: [e a0]
     X:    -3.7795      Y:    -0.0000      Z:     0.0000

  Electronic Dipole Moment: [e a0]
     X:     3.7795      Y:    -0.0000      Z:     0.0000

  Dipole Moment: [e a0]
     X:    -0.0000      Y:    -0.0000      Z:     0.0000     Total:     0.0000

  Dipole Moment: [D]
     X:    -0.0000      Y:    -0.0000      Z:     0.0000     Total:     0.0000

*** tstop() called on login at Mon Apr 18 15:16:53 2022
Module time:
	user time   =       0.19 seconds =       0.00 minutes
	system time =       0.01 seconds =       0.00 minutes
	total time  =          1 seconds =       0.02 minutes
Total time:
	user time   =       0.19 seconds =       0.00 minutes
	system time =       0.01 seconds =       0.00 minutes
	total time  =          1 seconds =       0.02 minutes

  //>>>>>>>>>>>>>>>>>>>>>>>>>>>>>>>>>>>>>>>>>>>>>>>>>>>>>>>>>>>>>//
  // Scheduling Monomer B in DESAVTZ monomer-centered basis (HF) //
  //<<<<<<<<<<<<<<<<<<<<<<<<<<<<<<<<<<<<<<<<<<<<<<<<<<<<<<<<<<<<<//

*** tstart() called on login
*** at Mon Apr 18 15:16:53 2022

   => Loading Basis Set <=

    Name: DESAVTZ
    Role: ORBITAL
    Keyword: BASIS
    atoms 1 entry HE         line    62 file /data/home/liuhanyu/anaconda3/envs/psi4/share/psi4/basis/aug-cc-pvtz.gbs

         ---------------------------------------------------------
                                   SCF
               by Justin Turney, Rob Parrish, Andy Simmonett
                          and Daniel G. A. Smith
                              RHF Reference
                        1 Threads,    500 MiB Core
         ---------------------------------------------------------

  ==> Geometry <==

    Molecular point group: c1
    Geometry (in Angstrom), charge = 0, multiplicity = 1:

       Center              X                  Y                   Z               Mass
    ------------   -----------------  -----------------  -----------------  -----------------
         HE           1.000000000000     0.000000000000     0.000000000000     4.002603254130

  Running in c1 symmetry.

  Rotational constants: A = ************  B =      4.21167  C =      4.21167 [cm^-1]
  Rotational constants: A = ************  B = 126262.57882  C = 126262.57882 [MHz]
  Nuclear repulsion =    0.000000000000000

  Charge       = 0
  Multiplicity = 1
  Electrons    = 2
  Nalpha       = 1
  Nbeta        = 1

  ==> Algorithm <==

  SCF Algorithm Type is DF.
  DIIS enabled.
  MOM disabled.
  Fractional occupation disabled.
  Guess Type is CORE.
  Energy threshold   = 1.00e-08
  Density threshold  = 1.00e-08
  Integral threshold = 1.00e-12

  ==> Primary Basis <==

  Basis Set: DESAVTZ
    Blend: AUG-CC-PVTZ
    Number of shells: 9
    Number of basis functions: 23
    Number of Cartesian functions: 25
    Spherical Harmonics?: true
    Max angular momentum: 2

   => Loading Basis Set <=

    Name: DESAVTZJKFIT
    Role: JKFIT
    Keyword: DF_BASIS_SCF
    atoms 1 entry HE         line    34 file /data/home/liuhanyu/anaconda3/envs/psi4/share/psi4/basis/def2-universal-jkfit.gbs

  ==> Integral Setup <==

  ==> DiskDFJK: Density-Fitted J/K Matrices <==

    J tasked:                  Yes
    K tasked:                  Yes
    wK tasked:                  No
    OpenMP threads:              1
    Integrals threads:           1
    Memory [MiB]:              375
    Algorithm:                Core
    Integral Cache:           NONE
    Schwarz Cutoff:          1E-12
    Fitting Condition:       1E-10

   => Auxiliary Basis Set <=

  Basis Set: DESAVTZJKFIT
    Blend: DEF2-UNIVERSAL-JKFIT
    Number of shells: 9
    Number of basis functions: 23
    Number of Cartesian functions: 25
    Spherical Harmonics?: true
    Max angular momentum: 2

  Minimum eigenvalue in the overlap matrix is 7.0110136498E-02.
  Reciprocal condition number of the overlap matrix is 2.7082357526E-02.
    Using symmetric orthogonalization.

  ==> Pre-Iterations <==

  SCF Guess: Core (One-Electron) Hamiltonian.

   -------------------------------------------------------
    Irrep   Nso     Nmo     Nalpha   Nbeta   Ndocc  Nsocc
   -------------------------------------------------------
     A         23      23       1       1       1       0
   -------------------------------------------------------
    Total      23      23       1       1       1       0
   -------------------------------------------------------

  ==> Iterations <==

                           Total Energy        Delta E     RMS |[F,P]|

   @DF-RHF iter   1:    -2.75222140508069   -2.75222e+00   2.30194e-02 DIIS
   @DF-RHF iter   2:    -2.85975100088551   -1.07530e-01   1.92123e-03 DIIS
   @DF-RHF iter   3:    -2.86118118969516   -1.43019e-03   2.83556e-04 DIIS
   @DF-RHF iter   4:    -2.86120624828801   -2.50586e-05   9.62172e-06 DIIS
   @DF-RHF iter   5:    -2.86120630793689   -5.96489e-08   1.00275e-06 DIIS
   @DF-RHF iter   6:    -2.86120630847484   -5.37951e-10   3.37004e-09 DIIS
  Energy and wave function converged.

  ==> Post-Iterations <==

    Orbital Energies [Eh]
    ---------------------

    Doubly Occupied:

       1A     -0.917882

    Virtual:

       2A      0.110957     3A      0.429035     4A      0.429035
       5A      0.429035     6A      0.842057     7A      1.520744
       8A      1.520744     9A      1.520744    10A      1.520744
      11A      1.520744    12A      1.962813    13A      1.962813
      14A      1.962813    15A      4.821640    16A      7.123617
      17A      7.123617    18A      7.123617    19A      7.123617
      20A      7.123617    21A      8.222484    22A      8.222484
      23A      8.222484

    Final Occupation by Irrep:
              A
    DOCC [     1 ]

  @DF-RHF Final Energy:    -2.86120630847484

   => Energetics <=

    Nuclear Repulsion Energy =              0.0000000000000000
    One-Electron Energy =                  -3.8866483964540333
    Two-Electron Energy =                   1.0254420879791923
    Total Energy =                         -2.8612063084748409

Computation Completed

Properties will be evaluated at   0.000000,   0.000000,   0.000000 [a0]

Properties computed using the SCF density matrix

  Nuclear Dipole Moment: [e a0]
     X:     3.7795      Y:     0.0000      Z:     0.0000

  Electronic Dipole Moment: [e a0]
     X:    -3.7795      Y:    -0.0000      Z:    -0.0000

  Dipole Moment: [e a0]
     X:    -0.0000      Y:    -0.0000      Z:    -0.0000     Total:     0.0000

  Dipole Moment: [D]
     X:    -0.0000      Y:    -0.0000      Z:    -0.0000     Total:     0.0000

*** tstop() called on login at Mon Apr 18 15:16:53 2022
Module time:
	user time   =       0.12 seconds =       0.00 minutes
	system time =       0.00 seconds =       0.00 minutes
	total time  =          0 seconds =       0.00 minutes
Total time:
	user time   =       0.32 seconds =       0.01 minutes
	system time =       0.01 seconds =       0.00 minutes
	total time  =          1 seconds =       0.02 minutes

  //>>>>>>>>>>>>>>>>>>>>>>>>>>>>>>>>>>>>>>>>>>>>>>>>>>>>>>>>>>>>>>>>>>>>>>>>>>>>>//
  // Scheduling Monomer A in DESAVQZ monomer-centered basis (MP2 density matrix) //
  //<<<<<<<<<<<<<<<<<<<<<<<<<<<<<<<<<<<<<<<<<<<<<<<<<<<<<<<<<<<<<<<<<<<<<<<<<<<<<//

   => Loading Basis Set <=

    Name: DESAVTZ
    Role: ORBITAL
    Keyword: BASIS
    atoms 1 entry HE         line    62 file /data/home/liuhanyu/anaconda3/envs/psi4/share/psi4/basis/aug-cc-pvtz.gbs

   => Loading Basis Set <=

    Name: DESAVTZ
    Role: ORBITAL
    Keyword: BASIS
    atoms 1 entry HE         line    62 file /data/home/liuhanyu/anaconda3/envs/psi4/share/psi4/basis/aug-cc-pvtz.gbs

   => Loading Basis Set <=

    Name: DESAVQZ
    Role: ORBITAL
    Keyword: BASIS
    atoms 1 entry HE         line    72 file /data/home/liuhanyu/anaconda3/envs/psi4/share/psi4/basis/aug-cc-pvqz.gbs

 Computing basis set projection from monomer a in desavtz monomer-centered basis to monomer a in desavqz monomer-centered basis (elapsed=0.37)
   => Loading Basis Set <=

    Name: DESAVQZ
    Role: ORBITAL
    Keyword: BASIS
    atoms 1 entry HE         line    72 file /data/home/liuhanyu/anaconda3/envs/psi4/share/psi4/basis/aug-cc-pvqz.gbs

*** tstart() called on login
*** at Mon Apr 18 15:16:53 2022

   => Loading Basis Set <=

    Name: DESAVQZ
    Role: ORBITAL
    Keyword: BASIS
    atoms 1 entry HE         line    72 file /data/home/liuhanyu/anaconda3/envs/psi4/share/psi4/basis/aug-cc-pvqz.gbs

         ---------------------------------------------------------
                                   SCF
               by Justin Turney, Rob Parrish, Andy Simmonett
                          and Daniel G. A. Smith
                              RHF Reference
                        1 Threads,    500 MiB Core
         ---------------------------------------------------------

  ==> Geometry <==

    Molecular point group: c1
    Geometry (in Angstrom), charge = 0, multiplicity = 1:

       Center              X                  Y                   Z               Mass
    ------------   -----------------  -----------------  -----------------  -----------------
         HE          -1.000000000000    -0.000000000000     0.000000000000     4.002603254130

  Running in c1 symmetry.

  Rotational constants: A = ************  B =      4.21167  C =      4.21167 [cm^-1]
  Rotational constants: A = ************  B = 126262.57882  C = 126262.57882 [MHz]
  Nuclear repulsion =    0.000000000000000

  Charge       = 0
  Multiplicity = 1
  Electrons    = 2
  Nalpha       = 1
  Nbeta        = 1

  ==> Algorithm <==

  SCF Algorithm Type is DF.
  DIIS enabled.
  MOM disabled.
  Fractional occupation disabled.
  Guess Type is READ.
  Energy threshold   = 1.00e-08
  Density threshold  = 1.00e-08
  Integral threshold = 1.00e-12

  ==> Primary Basis <==

  Basis Set: DESAVQZ
    Blend: AUG-CC-PVQZ
    Number of shells: 14
    Number of basis functions: 46
    Number of Cartesian functions: 55
    Spherical Harmonics?: true
    Max angular momentum: 3

   => Loading Basis Set <=

    Name: DESAVQZJKFIT
    Role: JKFIT
    Keyword: DF_BASIS_SCF
    atoms 1 entry HE         line    34 file /data/home/liuhanyu/anaconda3/envs/psi4/share/psi4/basis/def2-universal-jkfit.gbs

   => Loading Basis Set <=

    Name: DESAVQZ
    Role: ORBITAL
    Keyword: BASIS
    atoms 1 entry HE         line    72 file /data/home/liuhanyu/anaconda3/envs/psi4/share/psi4/basis/aug-cc-pvqz.gbs

  Reading orbitals from file /tmp/output.m1-m-high.26918.180.npy, no projection.

  ==> Integral Setup <==

  ==> DiskDFJK: Density-Fitted J/K Matrices <==

    J tasked:                  Yes
    K tasked:                  Yes
    wK tasked:                  No
    OpenMP threads:              1
    Integrals threads:           1
    Memory [MiB]:              375
    Algorithm:                Core
    Integral Cache:           NONE
    Schwarz Cutoff:          1E-12
    Fitting Condition:       1E-10

   => Auxiliary Basis Set <=

  Basis Set: DESAVQZJKFIT
    Blend: DEF2-UNIVERSAL-JKFIT
    Number of shells: 9
    Number of basis functions: 23
    Number of Cartesian functions: 25
    Spherical Harmonics?: true
    Max angular momentum: 2

  Minimum eigenvalue in the overlap matrix is 3.1408536236E-02.
  Reciprocal condition number of the overlap matrix is 1.0427704434E-02.
    Using symmetric orthogonalization.

  ==> Pre-Iterations <==

  SCF Guess: Orbitals guess was supplied from a previous computation.

   -------------------------------------------------------
    Irrep   Nso     Nmo     Nalpha   Nbeta   Ndocc  Nsocc
   -------------------------------------------------------
     A         46      46       1       1       1       0
   -------------------------------------------------------
    Total      46      46       1       1       1       0
   -------------------------------------------------------

  ==> Iterations <==

                           Total Energy        Delta E     RMS |[F,P]|

   @DF-RHF iter   0:    -2.86153278019997   -2.86153e+00   2.16246e-04
   @DF-RHF iter   1:    -2.86154476478331   -1.19846e-05   1.58275e-05 DIIS
   @DF-RHF iter   2:    -2.86154490996233   -1.45179e-07   1.93526e-06 DIIS
   @DF-RHF iter   3:    -2.86154491378709   -3.82476e-09   1.86748e-07 DIIS
   @DF-RHF iter   4:    -2.86154491383013   -4.30380e-11   7.35504e-09 DIIS
  Energy and wave function converged.

  ==> Post-Iterations <==

    Orbital Energies [Eh]
    ---------------------

    Doubly Occupied:

       1A     -0.917946

    Virtual:

       2A      0.098915     3A      0.349711     4A      0.349711
       5A      0.349711     6A      0.689100     7A      1.150101
       8A      1.150101     9A      1.150101    10A      1.150101
      11A      1.150101    12A      1.476229    13A      1.476229
      14A      1.476229    15A      2.959387    16A      3.017174
      17A      3.017174    18A      3.017174    19A      3.017174
      20A      3.017174    21A      3.017174    22A      3.017174
      23A      4.588244    24A      4.588244    25A      4.588244
      26A      4.588244    27A      4.588244    28A      5.130880
      29A      5.130880    30A      5.130880    31A     12.577070
      32A     12.577070    33A     12.577070    34A     12.577070
      35A     12.577070    36A     12.577070    37A     12.577070
      38A     13.622307    39A     16.645430    40A     16.645430
      41A     16.645430    42A     16.645430    43A     16.645430
      44A     18.092577    45A     18.092577    46A     18.092577

    Final Occupation by Irrep:
              A
    DOCC [     1 ]

  @DF-RHF Final Energy:    -2.86154491383013

   => Energetics <=

    Nuclear Repulsion Energy =              0.0000000000000000
    One-Electron Energy =                  -3.8871978167732411
    Two-Electron Energy =                   1.0256529029431141
    Total Energy =                         -2.8615449138301270

Computation Completed

Properties will be evaluated at   0.000000,   0.000000,   0.000000 [a0]

Properties computed using the SCF density matrix

  Nuclear Dipole Moment: [e a0]
     X:    -3.7795      Y:    -0.0000      Z:     0.0000

  Electronic Dipole Moment: [e a0]
     X:     3.7795      Y:     0.0000      Z:    -0.0000

  Dipole Moment: [e a0]
     X:     0.0000      Y:     0.0000      Z:    -0.0000     Total:     0.0000

  Dipole Moment: [D]
     X:     0.0000      Y:     0.0000      Z:    -0.0000     Total:     0.0000

*** tstop() called on login at Mon Apr 18 15:16:54 2022
Module time:
	user time   =       0.19 seconds =       0.00 minutes
	system time =       0.01 seconds =       0.00 minutes
	total time  =          1 seconds =       0.02 minutes
Total time:
	user time   =       0.69 seconds =       0.01 minutes
	system time =       0.03 seconds =       0.00 minutes
	total time  =          2 seconds =       0.03 minutes

*** tstart() called on login
*** at Mon Apr 18 15:16:54 2022

  //>>>>>>>>>>>>>>>>>>>>>>>>>>>>>>>>>>>//
  //               DFMP2               //
  //<<<<<<<<<<<<<<<<<<<<<<<<<<<<<<<<<<<//

   => Loading Basis Set <=

    Name: DESAVQZRI
    Role: RIFIT
    Keyword: DF_BASIS_MP2
    atoms 1 entry HE         line    72 file /data/home/liuhanyu/anaconda3/envs/psi4/share/psi4/basis/aug-cc-pvqz-ri.gbs

	 --------------------------------------------------------
	                          DF-MP2
	      2nd-Order Density-Fitted Moller-Plesset Theory
	              RMP2 Wavefunction,   1 Threads

	        Rob Parrish, Justin Turney, Andy Simmonett,
	           Ed Hohenstein, and C. David Sherrill
	 --------------------------------------------------------

   => Auxiliary Basis Set <=

  Basis Set: DESAVQZRI
    Blend: AUG-CC-PVQZ-RI
    Number of shells: 18
    Number of basis functions: 62
    Number of Cartesian functions: 75
    Spherical Harmonics?: true
    Max angular momentum: 3

	 --------------------------------------------------------
	                 NBF =    46, NAUX =    62
	 --------------------------------------------------------
	   CLASS    FOCC     OCC    AOCC    AVIR     VIR    FVIR
	   PAIRS       0       1       1      45      45       0
	 --------------------------------------------------------

         ------------------------------------------------------------
                                     CPHF
                                  Rob Parrish
         ------------------------------------------------------------

  ==> Geometry <==

    Molecular point group: c1
    Geometry (in Angstrom), charge = 0, multiplicity = 1:

       Center              X                  Y                   Z               Mass
    ------------   -----------------  -----------------  -----------------  -----------------
         HE          -1.000000000000    -0.000000000000     0.000000000000     4.002603254130

  Nuclear repulsion =    0.000000000000000
  Reference energy  =   -2.861544913830127

  ==> Basis Set <==

  Basis Set: DESAVQZ
    Blend: AUG-CC-PVQZ
    Number of shells: 14
    Number of basis functions: 46
    Number of Cartesian functions: 55
    Spherical Harmonics?: true
    Max angular momentum: 3

  ==> CGRSolver (by Rob Parrish) <==

   Number of roots    =         1
   Preconditioning    =    JACOBI
   Convergence cutoff =     1E-06
   Maximum iterations =       100

  ==> CPHFRHamiltonian (by Rob Parrish) <==

  ==> DiskDFJK: Density-Fitted J/K Matrices <==

    J tasked:                  Yes
    K tasked:                  Yes
    wK tasked:                  No
    OpenMP threads:              1
    Integrals threads:           1
    Memory [MiB]:              375
    Algorithm:                Core
    Integral Cache:           NONE
    Schwarz Cutoff:          1E-12
    Fitting Condition:       1E-10

   => Auxiliary Basis Set <=

  Basis Set: DESAVQZJKFIT
    Blend: DEF2-UNIVERSAL-JKFIT
    Number of shells: 9
    Number of basis functions: 23
    Number of Cartesian functions: 25
    Spherical Harmonics?: true
    Max angular momentum: 2

  ==> CPHF Iterations <==

  => Iterations <=

             Iter  Converged  Remaining    Residual
  CGR           1          0          1   7.247E-03
  CGR           2          0          1   2.179E-04
  CGR           3          0          1   1.374E-05
  CGR           4          1          0   1.814E-19

    CGRSolver converged.

	-----------------------------------------------------------
	 ==================> DF-MP2 Energies <====================
	-----------------------------------------------------------
	 Reference Energy          =      -2.8615449138301270 [Eh]
	 Singles Energy            =      -0.0000000000000000 [Eh]
	 Same-Spin Energy          =      -0.0000000000000000 [Eh]
	 Opposite-Spin Energy      =      -0.0357109612228996 [Eh]
	 Correlation Energy        =      -0.0357109612228996 [Eh]
	 Total Energy              =      -2.8972558750530268 [Eh]
	-----------------------------------------------------------
	 ================> DF-SCS-MP2 Energies <==================
	-----------------------------------------------------------
	 SCS Same-Spin Scale       =       0.3333333333333333 [-]
	 SCS Opposite-Spin Scale   =       1.2000000000000000 [-]
	 SCS Same-Spin Energy      =      -0.0000000000000000 [Eh]
	 SCS Opposite-Spin Energy  =      -0.0428531534674796 [Eh]
	 SCS Correlation Energy    =      -0.0428531534674796 [Eh]
	 SCS Total Energy          =      -2.9043980672976066 [Eh]
	-----------------------------------------------------------

*** tstop() called on login at Mon Apr 18 15:16:55 2022
Module time:
	user time   =       0.14 seconds =       0.00 minutes
	system time =       0.02 seconds =       0.00 minutes
	total time  =          1 seconds =       0.02 minutes
Total time:
	user time   =       0.84 seconds =       0.01 minutes
	system time =       0.05 seconds =       0.00 minutes
	total time  =          3 seconds =       0.05 minutes

  //>>>>>>>>>>>>>>>>>>>>>>>>>>>>>>>>>>>>>>>>>>>>>>>>>>>>>>>>>>>>>>>>>>>>>>>>>>>>>//
  // Scheduling Monomer B in DESAVQZ monomer-centered basis (MP2 density matrix) //
  //<<<<<<<<<<<<<<<<<<<<<<<<<<<<<<<<<<<<<<<<<<<<<<<<<<<<<<<<<<<<<<<<<<<<<<<<<<<<<//

   => Loading Basis Set <=

    Name: DESAVTZ
    Role: ORBITAL
    Keyword: BASIS
    atoms 1 entry HE         line    62 file /data/home/liuhanyu/anaconda3/envs/psi4/share/psi4/basis/aug-cc-pvtz.gbs

   => Loading Basis Set <=

    Name: DESAVTZ
    Role: ORBITAL
    Keyword: BASIS
    atoms 1 entry HE         line    62 file /data/home/liuhanyu/anaconda3/envs/psi4/share/psi4/basis/aug-cc-pvtz.gbs

   => Loading Basis Set <=

    Name: DESAVQZ
    Role: ORBITAL
    Keyword: BASIS
    atoms 1 entry HE         line    72 file /data/home/liuhanyu/anaconda3/envs/psi4/share/psi4/basis/aug-cc-pvqz.gbs

 Computing basis set projection from monomer b in desavtz monomer-centered basis to monomer b in desavqz monomer-centered basis (elapsed=0.10)
   => Loading Basis Set <=

    Name: DESAVQZ
    Role: ORBITAL
    Keyword: BASIS
    atoms 1 entry HE         line    72 file /data/home/liuhanyu/anaconda3/envs/psi4/share/psi4/basis/aug-cc-pvqz.gbs

*** tstart() called on login
*** at Mon Apr 18 15:16:55 2022

   => Loading Basis Set <=

    Name: DESAVQZ
    Role: ORBITAL
    Keyword: BASIS
    atoms 1 entry HE         line    72 file /data/home/liuhanyu/anaconda3/envs/psi4/share/psi4/basis/aug-cc-pvqz.gbs

         ---------------------------------------------------------
                                   SCF
               by Justin Turney, Rob Parrish, Andy Simmonett
                          and Daniel G. A. Smith
                              RHF Reference
                        1 Threads,    500 MiB Core
         ---------------------------------------------------------

  ==> Geometry <==

    Molecular point group: c1
    Geometry (in Angstrom), charge = 0, multiplicity = 1:

       Center              X                  Y                   Z               Mass
    ------------   -----------------  -----------------  -----------------  -----------------
         HE           1.000000000000     0.000000000000     0.000000000000     4.002603254130

  Running in c1 symmetry.

  Rotational constants: A = ************  B =      4.21167  C =      4.21167 [cm^-1]
  Rotational constants: A = ************  B = 126262.57882  C = 126262.57882 [MHz]
  Nuclear repulsion =    0.000000000000000

  Charge       = 0
  Multiplicity = 1
  Electrons    = 2
  Nalpha       = 1
  Nbeta        = 1

  ==> Algorithm <==

  SCF Algorithm Type is DF.
  DIIS enabled.
  MOM disabled.
  Fractional occupation disabled.
  Guess Type is READ.
  Energy threshold   = 1.00e-08
  Density threshold  = 1.00e-08
  Integral threshold = 1.00e-12

  ==> Primary Basis <==

  Basis Set: DESAVQZ
    Blend: AUG-CC-PVQZ
    Number of shells: 14
    Number of basis functions: 46
    Number of Cartesian functions: 55
    Spherical Harmonics?: true
    Max angular momentum: 3

   => Loading Basis Set <=

    Name: DESAVQZJKFIT
    Role: JKFIT
    Keyword: DF_BASIS_SCF
    atoms 1 entry HE         line    34 file /data/home/liuhanyu/anaconda3/envs/psi4/share/psi4/basis/def2-universal-jkfit.gbs

   => Loading Basis Set <=

    Name: DESAVQZ
    Role: ORBITAL
    Keyword: BASIS
    atoms 1 entry HE         line    72 file /data/home/liuhanyu/anaconda3/envs/psi4/share/psi4/basis/aug-cc-pvqz.gbs

  Reading orbitals from file /tmp/output.m2-m-high.26918.180.npy, no projection.

  ==> Integral Setup <==

  ==> DiskDFJK: Density-Fitted J/K Matrices <==

    J tasked:                  Yes
    K tasked:                  Yes
    wK tasked:                  No
    OpenMP threads:              1
    Integrals threads:           1
    Memory [MiB]:              375
    Algorithm:                Core
    Integral Cache:           NONE
    Schwarz Cutoff:          1E-12
    Fitting Condition:       1E-10

   => Auxiliary Basis Set <=

  @DF-RHF Final Energy:    -2.86154491383013
    Total Energy =                         -2.8615449138301265
  @DF-RHF Final Energy:    -2.86120922363728
    Total Energy =                         -2.8612092236372773
  @DF-RHF Final Energy:    -2.86120922363728
    Total Energy =                         -2.8612092236372799
  @DF-RHF Final Energy:    -2.86154620541793
    Total Energy =                         -2.8615462054179330
  @DF-RHF Final Energy:    -2.86154620541794
    Total Energy =                         -2.8615462054179366
  Multiplicity = 1
  @DF-RHF Final Energy:    -5.72010000586198
    Total Energy =                         -5.7201000058619762
	 Total Energy              =      -5.7877488418883010 [Eh]
	 SCS Total Energy          =      -5.8010879250676561 [Eh]
    Molecular point group: c1

    Geometry (in Angstrom), charge = 0, multiplicity = 1:

       Center              X                  Y                   Z               Mass
    ------------   -----------------  -----------------  -----------------  -----------------
         HE          -1.000000000000    -0.000000000000     0.000000000000     4.002603254130
         HE           1.000000000000     0.000000000000     0.000000000000     4.002603254130

  Charge       = 0
  Multiplicity = 1
  Basis Set: DESAVQZ
    Blend: AUG-CC-PVQZ
  Basis Set: DESAVQZJKFIT
    Blend: DEF2-UNIVERSAL-JKFIT

    Orbital Energies [Eh]
    ---------------------

    Doubly Occupied:

       1A     -0.939271     2A     -0.895260

  @DF-RHF Final Energy:    -5.72077949691927

   => Energetics <=

    Nuclear Repulsion Energy =              1.0583544213399998
    One-Electron Energy =                  -9.8892061806258660
    Two-Electron Energy =                   3.1100722623665940
    Total Energy =                         -5.7207794969192731

  Dipole Moment: [D]
     X:     0.0000      Y:     0.0000      Z:    -0.0000     Total:     0.0000

  Basis Set: DESAVQZRI
    Blend: AUG-CC-PVQZ-RI
	 Reference Energy          =      -5.7207794969192731 [Eh]
	 Singles Energy            =      -0.0000000000000000 [Eh]
	 Same-Spin Energy          =      -0.0002367916126511 [Eh]
	 Opposite-Spin Energy      =      -0.0716558727813781 [Eh]
	 Correlation Energy        =      -0.0718926643940292 [Eh]
	 Total Energy              =      -5.7926721613133019 [Eh]

	 ================> DF-SCS-MP2 Energies <==================
	-----------------------------------------------------------
	 SCS Same-Spin Scale       =       0.3333333333333333 [-]
	 SCS Opposite-Spin Scale   =       1.2000000000000000 [-]
	 SCS Same-Spin Energy      =      -0.0000789305375504 [Eh]
	 SCS Opposite-Spin Energy  =      -0.0859870473376537 [Eh]
	 SCS Correlation Energy    =      -0.0860659778752041 [Eh]
	 SCS Total Energy          =      -5.8068454747944775 [Eh]
	-----------------------------------------------------------

  Basis Set: DESAVQZJKFIT
    Blend: DEF2-UNIVERSAL-JKFIT
  Basis Set: DESAVQZJKFIT
    Blend: DEF2-UNIVERSAL-JKFIT

    SAPT Results
  --------------------------------------------------------------------------------------------------------
    Electrostatics                 -0.51562699 [mEh]      -0.32356082 [kcal/mol]      -1.35377849 [kJ/mol]
      Elst10,r                     -0.51562699 [mEh]      -0.32356082 [kcal/mol]      -1.35377849 [kJ/mol]

    Exchange                        3.04142572 [mEh]       1.90852345 [kcal/mol]       7.98526211 [kJ/mol]
      Exch10                        3.04142572 [mEh]       1.90852345 [kcal/mol]       7.98526211 [kJ/mol]
      Exch10(S^2)                   3.03613673 [mEh]       1.90520456 [kcal/mol]       7.97137587 [kJ/mol]

    Induction                      -0.21318763 [mEh]      -0.13377726 [kcal/mol]      -0.55972405 [kJ/mol]
      Ind20,r                      -0.01605606 [mEh]      -0.01007533 [kcal/mol]      -0.04215517 [kJ/mol]
      Exch-Ind20,r                  0.03287106 [mEh]       0.02062690 [kcal/mol]       0.08630295 [kJ/mol]
      delta HF,r (2)               -0.23000263 [mEh]      -0.14432883 [kcal/mol]      -0.60387183 [kJ/mol]

    Dispersion                     -0.45296074 [mEh]      -0.28423715 [kcal/mol]      -1.18924825 [kJ/mol]
      Disp20                       -0.47078390 [mEh]      -0.29542135 [kcal/mol]      -1.23604295 [kJ/mol]
      Exch-Disp20                   0.01782316 [mEh]       0.01118420 [kcal/mol]       0.04679470 [kJ/mol]
      Disp20 (SS)                  -0.23539195 [mEh]      -0.14771068 [kcal/mol]      -0.61802147 [kJ/mol]
      Disp20 (OS)                  -0.23539195 [mEh]      -0.14771068 [kcal/mol]      -0.61802147 [kJ/mol]
      Exch-Disp20 (SS)              0.01061511 [mEh]       0.00666108 [kcal/mol]       0.02786997 [kJ/mol]
      Exch-Disp20 (OS)              0.00720805 [mEh]       0.00452312 [kcal/mol]       0.01892473 [kJ/mol]

  Total HF                          2.31261109 [mEh]       1.45118537 [kcal/mol]       6.07175957 [kJ/mol]
  Total SAPT0                       1.85965035 [mEh]       1.16694821 [kcal/mol]       4.88251133 [kJ/mol]

  Special recipe for scaled SAPT0 (see Manual):
    Electrostatics sSAPT0          -0.51562699 [mEh]      -0.32356082 [kcal/mol]      -1.35377849 [kJ/mol]
    Exchange sSAPT0                 3.04142572 [mEh]       1.90852345 [kcal/mol]       7.98526211 [kJ/mol]
    Induction sSAPT0               -0.21301555 [mEh]      -0.13366927 [kcal/mol]      -0.55927225 [kJ/mol]
    Dispersion sSAPT0              -0.45286743 [mEh]      -0.28417860 [kcal/mol]      -1.18900327 [kJ/mol]
  Total sSAPT0                      1.85991574 [mEh]       1.16711475 [kcal/mol]       4.88320811 [kJ/mol]
  --------------------------------------------------------------------------------------------------------

*** Psi4 exiting successfully. Buy a developer a beer!
