                               Psi4 1.5 release

  ==> Input File <==

--------------------------------------------------------------------------
# filename: input.dat
# Optimize H2O HF/cc-pVDZ

molecule h2o {
    O
    H 1 0.96
    H 1 0.96 2 104.5
}

set basis cc-pVDZ
optimize('scf')--------------------------------------------------------------------------

Scratch directory: /tmp/
gradient() will perform analytic gradient computation.

*** tstart() called on login
*** at Mon Apr 18 10:52:39 2022

   => Loading Basis Set <=

    Name: CC-PVDZ
    Role: ORBITAL
    Keyword: BASIS
    atoms 1   entry O          line   198 file /data/home/liuhanyu/anaconda3/envs/psi4/share/psi4/basis/cc-pvdz.gbs
    atoms 2-3 entry H          line    22 file /data/home/liuhanyu/anaconda3/envs/psi4/share/psi4/basis/cc-pvdz.gbs

         ---------------------------------------------------------
                                   SCF
               by Justin Turney, Rob Parrish, Andy Simmonett
                          and Daniel G. A. Smith
                              RHF Reference
                        1 Threads,    500 MiB Core
         ---------------------------------------------------------

  ==> Geometry <==

    Molecular point group: c2v
    Full point group: C2v

    Geometry (in Angstrom), charge = 0, multiplicity = 1:

       Center              X                  Y                   Z               Mass
    ------------   -----------------  -----------------  -----------------  -----------------
         O            0.000000000000     0.000000000000    -0.065775570547    15.994914619570
         H            0.000000000000    -0.759061990794     0.521953018286     1.007825032230
         H            0.000000000000     0.759061990794     0.521953018286     1.007825032230

  Running in c2v symmetry.

  Rotational constants: A =     27.26297  B =     14.51533  C =      9.47217 [cm^-1]
  Rotational constants: A = 817323.21126  B = 435158.60141  C = 283968.37536 [MHz]
  Nuclear repulsion =    9.168193296424349

  Charge       = 0
  Multiplicity = 1
  Electrons    = 10
  Nalpha       = 5
  Nbeta        = 5

  ==> Algorithm <==

  SCF Algorithm Type is DF.
  DIIS enabled.
  MOM disabled.
  Fractional occupation disabled.
  Guess Type is SAD.
  Energy threshold   = 1.00e-08
  Density threshold  = 1.00e-08
  Integral threshold = 1.00e-12

  ==> Primary Basis <==

  Basis Set: CC-PVDZ
    Blend: CC-PVDZ
    Number of shells: 12
    Number of basis functions: 24
    Number of Cartesian functions: 25
    Spherical Harmonics?: true
    Max angular momentum: 2

   => Loading Basis Set <=

    Name: (CC-PVDZ AUX)
    Role: JKFIT
    Keyword: DF_BASIS_SCF
    atoms 1   entry O          line   221 file /data/home/liuhanyu/anaconda3/envs/psi4/share/psi4/basis/cc-pvdz-jkfit.gbs
    atoms 2-3 entry H          line    51 file /data/home/liuhanyu/anaconda3/envs/psi4/share/psi4/basis/cc-pvdz-jkfit.gbs

  ==> Integral Setup <==

  DFHelper Memory: AOs need 0.001 GiB; user supplied 0.366 GiB. Using in-core AOs.

  ==> MemDFJK: Density-Fitted J/K Matrices <==

    J tasked:                   Yes
    K tasked:                   Yes
    wK tasked:                   No
    OpenMP threads:               1
    Memory [MiB]:               375
    Algorithm:                 Core
    Schwarz Cutoff:           1E-12
    Mask sparsity (%):       0.0000
    Fitting Condition:        1E-10

   => Auxiliary Basis Set <=

  Basis Set: (CC-PVDZ AUX)
    Blend: CC-PVDZ-JKFIT
    Number of shells: 42
    Number of basis functions: 116
    Number of Cartesian functions: 131
    Spherical Harmonics?: true
    Max angular momentum: 3

  Minimum eigenvalue in the overlap matrix is 3.2707806872E-02.
  Reciprocal condition number of the overlap matrix is 1.0389988226E-02.
    Using symmetric orthogonalization.

  ==> Pre-Iterations <==

  SCF Guess: Superposition of Atomic Densities via on-the-fly atomic UHF (no occupation information).

   -------------------------
    Irrep   Nso     Nmo
   -------------------------
     A1        11      11
     A2         2       2
     B1         4       4
     B2         7       7
   -------------------------
    Total      24      24
   -------------------------

  ==> Iterations <==

                           Total Energy        Delta E     RMS |[F,P]|

   @DF-RHF iter SAD:   -75.50772041125765   -7.55077e+01   0.00000e+00
   @DF-RHF iter   1:   -75.95376270516577   -4.46042e-01   3.03066e-02 DIIS
   @DF-RHF iter   2:   -76.00706363301774   -5.33009e-02   1.73566e-02 DIIS
   @DF-RHF iter   3:   -76.02622368351994   -1.91601e-02   1.58492e-03 DIIS
   @DF-RHF iter   4:   -76.02661218857607   -3.88505e-04   3.65252e-04 DIIS
   @DF-RHF iter   5:   -76.02663177688967   -1.95883e-05   6.70709e-05 DIIS
   @DF-RHF iter   6:   -76.02663270835728   -9.31468e-07   1.06747e-05 DIIS
   @DF-RHF iter   7:   -76.02663273455096   -2.61937e-08   1.50583e-06 DIIS
   @DF-RHF iter   8:   -76.02663273509026   -5.39302e-10   3.50189e-07 DIIS
   @DF-RHF iter   9:   -76.02663273512391   -3.36513e-11   5.93061e-08 DIIS
   @DF-RHF iter  10:   -76.02663273512472   -8.10019e-13   4.89733e-09 DIIS
  Energy and wave function converged.

  ==> Post-Iterations <==

    Orbital Energies [Eh]
    ---------------------

    Doubly Occupied:

       1A1   -20.550925     2A1    -1.335311     1B2    -0.697803
       3A1    -0.566087     1B1    -0.492948

    Virtual:

       4A1     0.185107     2B2     0.255846     3B2     0.787336
       5A1     0.851826     6A1     1.163856     2B1     1.200424
       4B2     1.253573     7A1     1.445291     1A2     1.476011
       3B1     1.674661     8A1     1.868110     5B2     1.932579
       6B2     2.446529     9A1     2.483817     4B1     3.283958
       2A2     3.336669    10A1     3.507634    11A1     3.863421
       7B2     4.144760

    Final Occupation by Irrep:
             A1    A2    B1    B2
    DOCC [     3,    0,    1,    1 ]

  @DF-RHF Final Energy:   -76.02663273512472

   => Energetics <=

    Nuclear Repulsion Energy =              9.1681932964243487
    One-Electron Energy =                -123.1035071874264872
    Two-Electron Energy =                  37.9086811558774102
    Total Energy =                        -76.0266327351247355

Computation Completed

Properties will be evaluated at   0.000000,   0.000000,   0.000000 [a0]

Properties computed using the SCF density matrix

  Nuclear Dipole Moment: [e a0]
     X:     0.0000      Y:     0.0000      Z:     0.9783

  Electronic Dipole Moment: [e a0]
     X:     0.0000      Y:     0.0000      Z:    -0.1680

  Dipole Moment: [e a0]
     X:     0.0000      Y:     0.0000      Z:     0.8103     Total:     0.8103

  Dipole Moment: [D]
     X:     0.0000      Y:     0.0000      Z:     2.0595     Total:     2.0595

*** tstop() called on login at Mon Apr 18 10:52:39 2022
Module time:
	user time   =       0.36 seconds =       0.01 minutes
	system time =       0.03 seconds =       0.00 minutes
	total time  =          0 seconds =       0.00 minutes
Total time:
	user time   =       0.36 seconds =       0.01 minutes
	system time =       0.03 seconds =       0.00 minutes
	total time  =          0 seconds =       0.00 minutes

*** tstart() called on login
*** at Mon Apr 18 10:52:39 2022

         ------------------------------------------------------------
                                   SCF GRAD
                          Rob Parrish, Justin Turney,
                       Andy Simmonett, and Alex Sokolov
         ------------------------------------------------------------

  ==> Geometry <==

    Molecular point group: c2v
    Full point group: C2v

    Geometry (in Angstrom), charge = 0, multiplicity = 1:

       Center              X                  Y                   Z               Mass
    ------------   -----------------  -----------------  -----------------  -----------------
         O            0.000000000000     0.000000000000    -0.065775570547    15.994914619570
         H            0.000000000000    -0.759061990794     0.521953018286     1.007825032230
         H            0.000000000000     0.759061990794     0.521953018286     1.007825032230

  Nuclear repulsion =    9.168193296424349

  ==> Basis Set <==

  Basis Set: CC-PVDZ
    Blend: CC-PVDZ
    Number of shells: 12
    Number of basis functions: 24
    Number of Cartesian functions: 25
    Spherical Harmonics?: true
    Max angular momentum: 2

  ==> DFJKGrad: Density-Fitted SCF Gradients <==

    Gradient:                    1
    J tasked:                  Yes
    K tasked:                  Yes
    wK tasked:                  No
    OpenMP threads:              1
    Integrals threads:           1
    Memory [MiB]:              375
    Schwarz Cutoff:          1E-12
    Fitting Condition:       1E-10

   => Auxiliary Basis Set <=

  Basis Set: (CC-PVDZ AUX)
    Blend: CC-PVDZ-JKFIT
    Number of shells: 42
    Number of basis functions: 116
    Number of Cartesian functions: 131
    Spherical Harmonics?: true
    Max angular momentum: 3

  -Total Gradient:
     Atom            X                  Y                   Z
    ------   -----------------  -----------------  -----------------
       1        0.000000000000     0.000000000000    -0.017641630012
       2        0.000000000000    -0.012438414895     0.008820815006
       3       -0.000000000000     0.012438414895     0.008820815006

*** tstop() called on login at Mon Apr 18 10:52:40 2022
Module time:
	user time   =       0.10 seconds =       0.00 minutes
	system time =       0.01 seconds =       0.00 minutes
	total time  =          1 seconds =       0.02 minutes
Total time:
	user time   =       0.46 seconds =       0.01 minutes
	system time =       0.04 seconds =       0.00 minutes
	total time  =          1 seconds =       0.02 minutes

			-----------------------------------------
			 OPTKING 2.0: for geometry optimizations
			  - R.A. King,  Bethel University
			-----------------------------------------

	Internal coordinates to be generated automatically.
	Detected frag 1 with atoms:  1 2 3
	---Fragment 1 Bond Connectivity---
	 1 : 2 3
	 2 : 1
	 3 : 1

	---Fragment 1 Geometry and Gradient---
	 O           0.0000000000        0.0000000000       -0.1242978141
	 H           0.0000000000       -1.4344192748        0.9863482549
	 H           0.0000000000        1.4344192748        0.9863482549
	             0.0000000000        0.0000000000       -0.0176416300
	             0.0000000000       -0.0124384149        0.0088208150
	            -0.0000000000        0.0124384149        0.0088208150

	Previous optimization step data not found.  Starting new optimization.

	---Fragment 1 Intrafragment Coordinates---
	 - Coordinate -           - BOHR/RAD -       - ANG/DEG -
	 R(1,2)           =         1.814137	       0.960000
	 R(1,3)           =         1.814137	       0.960000
	 B(2,1,3)         =         1.823869	     104.500000

	Current energy   :       -76.0266327351

	Generating empirical Hessian (Schlegel '84) for each fragment.
	Taking RFO optimization step.
	Going to follow RFO solution 1.
	Using RFO vector 1.
	Norm of target step-size    0.03945
	Projected energy change by RFO approximation:        -0.0009497236

	Back-transformation to cartesian coordinates...
	Successfully converged to displaced geometry.

	--- Internal Coordinate Step in ANG or DEG, aJ/ANG or AJ/DEG ---
	 ---------------------------------------------------------------------------
	   Coordinate                Previous        Force       Change         New
	   ----------                --------       ------       ------       ------
	    1 R(1,2)          =      0.960000    -0.125518    -0.014511     0.945489
	    2 R(1,3)          =      0.960000    -0.125518    -0.014511     0.945489
	    3 B(2,1,3)        =    104.500000    -0.000088    -0.413902   104.086098
	 ---------------------------------------------------------------------------
	Successfully symmetrized geometry.

  ==> Convergence Check <==

  Measures of convergence in internal coordinates in au.
  Criteria marked as inactive (o), active & met (*), and active & unmet ( ).
  --------------------------------------------------------------------------------------------- ~
   Step     Total Energy     Delta E     MAX Force     RMS Force      MAX Disp      RMS Disp    ~
  --------------------------------------------------------------------------------------------- ~
    Convergence Criteria    1.00e-06 *    3.00e-04 *             o    1.20e-03 *             o  ~
  --------------------------------------------------------------------------------------------- ~
      1     -76.02663274   -7.60e+01      1.52e-02      1.25e-02 o    2.74e-02      2.28e-02 o  ~
  ---------------------------------------------------------------------------------------------

	Writing optimization data to binary file.
	Structure for next step:
	Cartesian Geometry (in Angstrom)
	    O     0.0000000000   0.0000000000  -0.0616505536
	    H     0.0000000000  -0.7454924780   0.5198905079
	    H     0.0000000000   0.7454924780   0.5198905079
			--------------------------
			 OPTKING Finished Execution
			--------------------------

    Structure for next step:
    Molecular point group: c2v
    Full point group: C2v

    Geometry (in Angstrom), charge = 0, multiplicity = 1:

    O
    H             1    0.945489
    H             1    0.945489      2  104.086098

Scratch directory: /tmp/
gradient() will perform analytic gradient computation.

*** tstart() called on login
*** at Mon Apr 18 10:52:40 2022

   => Loading Basis Set <=

    Name: CC-PVDZ
    Role: ORBITAL
    Keyword: BASIS
    atoms 1   entry O          line   198 file /data/home/liuhanyu/anaconda3/envs/psi4/share/psi4/basis/cc-pvdz.gbs
    atoms 2-3 entry H          line    22 file /data/home/liuhanyu/anaconda3/envs/psi4/share/psi4/basis/cc-pvdz.gbs

         ---------------------------------------------------------
                                   SCF
               by Justin Turney, Rob Parrish, Andy Simmonett
                          and Daniel G. A. Smith
                              RHF Reference
                        1 Threads,    500 MiB Core
         ---------------------------------------------------------

  ==> Geometry <==

    Molecular point group: c2v
    Full point group: C2v

    Geometry (in Angstrom), charge = 0, multiplicity = 1:

       Center              X                  Y                   Z               Mass
    ------------   -----------------  -----------------  -----------------  -----------------
         O            0.000000000000     0.000000000000    -0.065083094467    15.994914619570
         H            0.000000000000    -0.745492480957     0.516457969336     1.007825032230
         H            0.000000000000     0.745492480957     0.516457969336     1.007825032230

  Running in c2v symmetry.

  Rotational constants: A =     27.84620  B =     15.04856  C =      9.76915 [cm^-1]
  Rotational constants: A = 834808.17380  B = 451144.35496  C = 292871.61591 [MHz]
  Nuclear repulsion =    9.309900183313335

  Charge       = 0
  Multiplicity = 1
  Electrons    = 10
  Nalpha       = 5
  Nbeta        = 5

  ==> Algorithm <==

  SCF Algorithm Type is DF.
  DIIS enabled.
  MOM disabled.
  Fractional occupation disabled.
  Guess Type is READ.
  Energy threshold   = 1.00e-08
  Density threshold  = 1.00e-08
  Integral threshold = 1.00e-12

  ==> Primary Basis <==

  Basis Set: CC-PVDZ
    Blend: CC-PVDZ
    Number of shells: 12
    Number of basis functions: 24
    Number of Cartesian functions: 25
    Spherical Harmonics?: true
    Max angular momentum: 2

   => Loading Basis Set <=

    Name: (CC-PVDZ AUX)
    Role: JKFIT
    Keyword: DF_BASIS_SCF
    atoms 1   entry O          line   221 file /data/home/liuhanyu/anaconda3/envs/psi4/share/psi4/basis/cc-pvdz-jkfit.gbs
    atoms 2-3 entry H          line    51 file /data/home/liuhanyu/anaconda3/envs/psi4/share/psi4/basis/cc-pvdz-jkfit.gbs

   => Loading Basis Set <=

    Name: CC-PVDZ
    Role: ORBITAL
    Keyword: BASIS
    atoms 1   entry O          line   198 file /data/home/liuhanyu/anaconda3/envs/psi4/share/psi4/basis/cc-pvdz.gbs
    atoms 2-3 entry H          line    22 file /data/home/liuhanyu/anaconda3/envs/psi4/share/psi4/basis/cc-pvdz.gbs

  Reading orbitals from file /tmp/output.h2o.29177.180.npy, no projection.

  ==> Integral Setup <==

  DFHelper Memory: AOs need 0.001 GiB; user supplied 0.366 GiB. Using in-core AOs.

  ==> MemDFJK: Density-Fitted J/K Matrices <==

    J tasked:                   Yes
    K tasked:                   Yes
    wK tasked:                   No
    OpenMP threads:               1
    Memory [MiB]:               375
    Algorithm:                 Core
    Schwarz Cutoff:           1E-12
    Mask sparsity (%):       0.0000
    Fitting Condition:        1E-10

   => Auxiliary Basis Set <=

  Basis Set: (CC-PVDZ AUX)
    Blend: CC-PVDZ-JKFIT
    Number of shells: 42
    Number of basis functions: 116
    Number of Cartesian functions: 131
    Spherical Harmonics?: true
    Max angular momentum: 3

  Minimum eigenvalue in the overlap matrix is 3.1598365161E-02.
  Reciprocal condition number of the overlap matrix is 9.9879600816E-03.
    Using symmetric orthogonalization.

  ==> Pre-Iterations <==

  SCF Guess: Orbitals guess was supplied from a previous computation.

   -------------------------------------------------------
    Irrep   Nso     Nmo     Nalpha   Nbeta   Ndocc  Nsocc
   -------------------------------------------------------
     A1        11      11       3       3       3       0
     A2         2       2       0       0       0       0
     B1         4       4       1       1       1       0
     B2         7       7       1       1       1       0
   -------------------------------------------------------
    Total      24      24       5       5       5       0
   -------------------------------------------------------

  ==> Iterations <==

                           Total Energy        Delta E     RMS |[F,P]|

   @DF-RHF iter   0:   -76.04830539166639   -7.60483e+01   3.87082e-03
   @DF-RHF iter   1:   -76.02698979674557    2.13156e-02   5.97563e-04 DIIS
   @DF-RHF iter   2:   -76.02701635203286   -2.65553e-05   3.06093e-04 DIIS
   @DF-RHF iter   3:   -76.02702228518778   -5.93315e-06   4.26182e-05 DIIS
   @DF-RHF iter   4:   -76.02702262857326   -3.43385e-07   1.31663e-05 DIIS
   @DF-RHF iter   5:   -76.02702266375796   -3.51847e-08   2.75997e-06 DIIS
   @DF-RHF iter   6:   -76.02702266596388   -2.20592e-09   4.90725e-07 DIIS
   @DF-RHF iter   7:   -76.02702266602145   -5.75682e-11   6.87868e-08 DIIS
   @DF-RHF iter   8:   -76.02702266602245   -9.94760e-13   1.01762e-08 DIIS
   @DF-RHF iter   9:   -76.02702266602242    2.84217e-14   8.33459e-10 DIIS
  Energy and wave function converged.

  ==> Post-Iterations <==

    Orbital Energies [Eh]
    ---------------------

    Doubly Occupied:

       1A1   -20.548577     2A1    -1.343128     1B2    -0.704833
       3A1    -0.569635     1B1    -0.494167

    Virtual:

       4A1     0.187430     2B2     0.257995     3B2     0.796450
       5A1     0.867633     6A1     1.163162     2B1     1.200331
       4B2     1.253190     7A1     1.439312     1A2     1.481259
       3B1     1.675232     8A1     1.864191     5B2     1.951304
       6B2     2.479906     9A1     2.521591     4B1     3.299140
       2A2     3.349433    10A1     3.528742    11A1     3.876036
       7B2     4.163835

    Final Occupation by Irrep:
             A1    A2    B1    B2
    DOCC [     3,    0,    1,    1 ]

  @DF-RHF Final Energy:   -76.02702266602242

   => Energetics <=

    Nuclear Repulsion Energy =              9.3099001833133350
    One-Electron Energy =                -123.3531659371188169
    Two-Electron Energy =                  38.0162430877830744
    Total Energy =                        -76.0270226660224182

Computation Completed

Properties will be evaluated at   0.000000,   0.000000,   0.000000 [a0]

Properties computed using the SCF density matrix

  Nuclear Dipole Moment: [e a0]
     X:     0.0000      Y:     0.0000      Z:     0.9680

  Electronic Dipole Moment: [e a0]
     X:     0.0000      Y:     0.0000      Z:    -0.1608

  Dipole Moment: [e a0]
     X:     0.0000      Y:     0.0000      Z:     0.8072     Total:     0.8072

  Dipole Moment: [D]
     X:     0.0000      Y:     0.0000      Z:     2.0517     Total:     2.0517

*** tstop() called on login at Mon Apr 18 10:52:41 2022
Module time:
	user time   =       0.26 seconds =       0.00 minutes
	system time =       0.01 seconds =       0.00 minutes
	total time  =          1 seconds =       0.02 minutes
Total time:
	user time   =       0.74 seconds =       0.01 minutes
	system time =       0.05 seconds =       0.00 minutes
	total time  =          2 seconds =       0.03 minutes

*** tstart() called on login
*** at Mon Apr 18 10:52:41 2022

         ------------------------------------------------------------
                                   SCF GRAD
                          Rob Parrish, Justin Turney,
                       Andy Simmonett, and Alex Sokolov
         ------------------------------------------------------------

  ==> Geometry <==

    Molecular point group: c2v
    Full point group: C2v

    Geometry (in Angstrom), charge = 0, multiplicity = 1:

       Center              X                  Y                   Z               Mass
    ------------   -----------------  -----------------  -----------------  -----------------
         O            0.000000000000     0.000000000000    -0.065083094467    15.994914619570
         H            0.000000000000    -0.745492480957     0.516457969336     1.007825032230
         H            0.000000000000     0.745492480957     0.516457969336     1.007825032230

  Nuclear repulsion =    9.309900183313335

  ==> Basis Set <==

  Basis Set: CC-PVDZ
    Blend: CC-PVDZ
    Number of shells: 12
    Number of basis functions: 24
    Number of Cartesian functions: 25
    Spherical Harmonics?: true
    Max angular momentum: 2

  ==> DFJKGrad: Density-Fitted SCF Gradients <==

    Gradient:                    1
    J tasked:                  Yes
    K tasked:                  Yes
    wK tasked:                  No
    OpenMP threads:              1
    Integrals threads:           1
    Memory [MiB]:              375
    Schwarz Cutoff:          1E-12
    Fitting Condition:       1E-10

   => Auxiliary Basis Set <=

  Basis Set: (CC-PVDZ AUX)
    Blend: CC-PVDZ-JKFIT
    Number of shells: 42
    Number of basis functions: 116
    Number of Cartesian functions: 131
    Spherical Harmonics?: true
    Max angular momentum: 3

  -Total Gradient:
     Atom            X                  Y                   Z
    ------   -----------------  -----------------  -----------------
       1        0.000000000000     0.000000000000    -0.000087991510
       2       -0.000000000000     0.001570409326     0.000043995755
       3        0.000000000000    -0.001570409326     0.000043995755

*** tstop() called on login at Mon Apr 18 10:52:41 2022
Module time:
	user time   =       0.05 seconds =       0.00 minutes
	system time =       0.00 seconds =       0.00 minutes
	total time  =          0 seconds =       0.00 minutes
Total time:
	user time   =       0.80 seconds =       0.01 minutes
	system time =       0.05 seconds =       0.00 minutes
	total time  =          2 seconds =       0.03 minutes

			-----------------------------------------
			 OPTKING 2.0: for geometry optimizations
			  - R.A. King,  Bethel University
			-----------------------------------------

	Previous internal coordinate definitions found.
	---Fragment 1 Geometry and Gradient---
	 O           0.0000000000        0.0000000000       -0.1229892239
	 H           0.0000000000       -1.4087766176        0.9759641174
	 H           0.0000000000        1.4087766176        0.9759641174
	             0.0000000000        0.0000000000       -0.0000879915
	            -0.0000000000        0.0015704093        0.0000439958
	             0.0000000000       -0.0015704093        0.0000439958

	---Fragment 1 Intrafragment Coordinates---
	 - Coordinate -           - BOHR/RAD -       - ANG/DEG -
	 R(1,2)           =         1.786715	       0.945489
	 R(1,3)           =         1.786715	       0.945489
	 B(2,1,3)         =         1.816645	     104.086098

	Current energy   :       -76.0270226660

	Energy change for the previous step:
		Projected    :        -0.0009497236
		Actual       :        -0.0003899309

	Performing BFGS update.
	Previous computed or guess Hessian on step 1.
	Steps to be used in Hessian update: 1
	Taking RFO optimization step.
	Going to follow RFO solution 1.
	Using RFO vector 1.
	Norm of target step-size    0.01030
	Projected energy change by RFO approximation:        -0.0000302583

	Back-transformation to cartesian coordinates...
	Successfully converged to displaced geometry.

	--- Internal Coordinate Step in ANG or DEG, aJ/ANG or AJ/DEG ---
	 ---------------------------------------------------------------------------
	   Coordinate                Previous        Force       Change         New
	   ----------                --------       ------       ------       ------
	    1 R(1,2)          =      0.945489     0.009978     0.000798     0.946287
	    2 R(1,3)          =      0.945489     0.009978     0.000798     0.946287
	    3 B(2,1,3)        =    104.086098     0.000136     0.577619   104.663717
	 ---------------------------------------------------------------------------
	Successfully symmetrized geometry.

  ==> Convergence Check <==

  Measures of convergence in internal coordinates in au.
  Criteria marked as inactive (o), active & met (*), and active & unmet ( ).
  ---------------------------------------------------------------------------------------------
   Step     Total Energy     Delta E     MAX Force     RMS Force      MAX Disp      RMS Disp
  ---------------------------------------------------------------------------------------------
    Convergence Criteria    1.00e-06 *    3.00e-04 *             o    1.20e-03 *             o
  ---------------------------------------------------------------------------------------------
      2     -76.02702267   -3.90e-04      1.79e-03      1.43e-03 o    1.01e-02      5.95e-03 o  ~
  ---------------------------------------------------------------------------------------------

	Writing optimization data to binary file.
	Structure for next step:
	Cartesian Geometry (in Angstrom)
	    O     0.0000000000   0.0000000000  -0.0628980711
	    H     0.0000000000  -0.7490459964   0.5153654558
	    H     0.0000000000   0.7490459964   0.5153654558
			--------------------------
			 OPTKING Finished Execution
			--------------------------

    Structure for next step:
    Molecular point group: c2v
    Full point group: C2v

    Geometry (in Angstrom), charge = 0, multiplicity = 1:

    O
    H             1    0.946287
    H             1    0.946287      2  104.663717

Scratch directory: /tmp/
gradient() will perform analytic gradient computation.

*** tstart() called on login
*** at Mon Apr 18 10:52:41 2022

   => Loading Basis Set <=

    Name: CC-PVDZ
    Role: ORBITAL
    Keyword: BASIS
    atoms 1   entry O          line   198 file /data/home/liuhanyu/anaconda3/envs/psi4/share/psi4/basis/cc-pvdz.gbs
    atoms 2-3 entry H          line    22 file /data/home/liuhanyu/anaconda3/envs/psi4/share/psi4/basis/cc-pvdz.gbs

         ---------------------------------------------------------
                                   SCF
               by Justin Turney, Rob Parrish, Andy Simmonett
                          and Daniel G. A. Smith
                              RHF Reference
                        1 Threads,    500 MiB Core
         ---------------------------------------------------------

  ==> Geometry <==

    Molecular point group: c2v
    Full point group: C2v

    Geometry (in Angstrom), charge = 0, multiplicity = 1:

       Center              X                  Y                   Z               Mass
    ------------   -----------------  -----------------  -----------------  -----------------
         O            0.000000000000     0.000000000000    -0.064716289590    15.994914619570
         H            0.000000000000    -0.749045999358     0.513547239539     1.007825032230
         H            0.000000000000     0.749045999358     0.513547239539     1.007825032230

  Running in c2v symmetry.

  Rotational constants: A =     28.16276  B =     14.90611  C =      9.74711 [cm^-1]
  Rotational constants: A = 844298.19554  B = 446873.99760  C = 292211.14876 [MHz]
  Nuclear repulsion =    9.300665063106063

  Charge       = 0
  Multiplicity = 1
  Electrons    = 10
  Nalpha       = 5
  Nbeta        = 5

  ==> Algorithm <==

  SCF Algorithm Type is DF.
  DIIS enabled.
  MOM disabled.
  Fractional occupation disabled.
  Guess Type is READ.
  Energy threshold   = 1.00e-08
  Density threshold  = 1.00e-08
  Integral threshold = 1.00e-12

  ==> Primary Basis <==

  Basis Set: CC-PVDZ
    Blend: CC-PVDZ
    Number of shells: 12
    Number of basis functions: 24
    Number of Cartesian functions: 25
    Spherical Harmonics?: true
    Max angular momentum: 2

   => Loading Basis Set <=

    Name: (CC-PVDZ AUX)
    Role: JKFIT
    Keyword: DF_BASIS_SCF
    atoms 1   entry O          line   221 file /data/home/liuhanyu/anaconda3/envs/psi4/share/psi4/basis/cc-pvdz-jkfit.gbs
    atoms 2-3 entry H          line    51 file /data/home/liuhanyu/anaconda3/envs/psi4/share/psi4/basis/cc-pvdz-jkfit.gbs

   => Loading Basis Set <=

    Name: CC-PVDZ
    Role: ORBITAL
    Keyword: BASIS
    atoms 1   entry O          line   198 file /data/home/liuhanyu/anaconda3/envs/psi4/share/psi4/basis/cc-pvdz.gbs
    atoms 2-3 entry H          line    22 file /data/home/liuhanyu/anaconda3/envs/psi4/share/psi4/basis/cc-pvdz.gbs

  Reading orbitals from file /tmp/output.h2o.29177.180.npy, no projection.

  ==> Integral Setup <==

  DFHelper Memory: AOs need 0.001 GiB; user supplied 0.366 GiB. Using in-core AOs.

  ==> MemDFJK: Density-Fitted J/K Matrices <==

    J tasked:                   Yes
    K tasked:                   Yes
    wK tasked:                   No
    OpenMP threads:               1
    Memory [MiB]:               375
    Algorithm:                 Core
    Schwarz Cutoff:           1E-12
    Mask sparsity (%):       0.0000
    Fitting Condition:        1E-10

   => Auxiliary Basis Set <=

  Basis Set: (CC-PVDZ AUX)
    Blend: CC-PVDZ-JKFIT
    Number of shells: 42
    Number of basis functions: 116
    Number of Cartesian functions: 131
    Spherical Harmonics?: true
    Max angular momentum: 3

  Minimum eigenvalue in the overlap matrix is 3.1737560928E-02.
  Reciprocal condition number of the overlap matrix is 1.0037051093E-02.
    Using symmetric orthogonalization.

  ==> Pre-Iterations <==

  SCF Guess: Orbitals guess was supplied from a previous computation.

   -------------------------------------------------------
    Irrep   Nso     Nmo     Nalpha   Nbeta   Ndocc  Nsocc
   -------------------------------------------------------
     A1        11      11       3       3       3       0
     A2         2       2       0       0       0       0
     B1         4       4       1       1       1       0
     B2         7       7       1       1       1       0
   -------------------------------------------------------
    Total      24      24       5       5       5       0
   -------------------------------------------------------

  ==> Iterations <==

                           Total Energy        Delta E     RMS |[F,P]|

   @DF-RHF iter   0:   -76.02604012271605   -7.60260e+01   3.14831e-04
   @DF-RHF iter   1:   -76.02703225719577   -9.92134e-04   6.89502e-05 DIIS
   @DF-RHF iter   2:   -76.02703266108158   -4.03886e-07   2.54440e-05 DIIS
   @DF-RHF iter   3:   -76.02703271700416   -5.59226e-08   9.31236e-06 DIIS
   @DF-RHF iter   4:   -76.02703272814391   -1.11397e-08   2.07995e-06 DIIS
   @DF-RHF iter   5:   -76.02703272930370   -1.15979e-09   5.04744e-07 DIIS
   @DF-RHF iter   6:   -76.02703272937467   -7.09690e-11   4.03821e-08 DIIS
   @DF-RHF iter   7:   -76.02703272937504   -3.69482e-13   3.05460e-09 DIIS
  Energy and wave function converged.

  ==> Post-Iterations <==

    Orbital Energies [Eh]
    ---------------------

    Doubly Occupied:

       1A1   -20.548408     2A1    -1.342234     1B2    -0.705525
       3A1    -0.568294     1B1    -0.493901

  @DF-RHF Final Energy:   -76.02703272937504

   => Energetics <=

    Nuclear Repulsion Energy =              9.3006650631060630
    One-Electron Energy =                -123.3386693196960096
    Two-Electron Energy =                  38.0109715272148989
    Total Energy =                        -76.0270327293750370

  Dipole Moment: [D]
     X:     0.0000      Y:     0.0000      Z:     2.0438     Total:     2.0438

    Molecular point group: c2v
  Basis Set: CC-PVDZ
    Blend: CC-PVDZ
  Basis Set: (CC-PVDZ AUX)
    Blend: CC-PVDZ-JKFIT

  -Total Gradient:
     Atom            X                  Y                   Z
    ------   -----------------  -----------------  -----------------
       1       -0.000000000000     0.000000000000     0.000085866497
       2        0.000000000000    -0.000072678420    -0.000042933248
       3       -0.000000000000     0.000072678420    -0.000042933248

  **** Optimization is complete! (in 3 steps) ****
    Final optimized geometry and variables:
    Molecular point group: c2v

    Geometry (in Angstrom), charge = 0, multiplicity = 1:

    O
    H             1    0.946287
    H             1    0.946287      2  104.663717

*** Psi4 exiting successfully. Buy a developer a beer!
